/*--------------------------------*- C++ -*----------------------------------*\
| =========                 |                                                 |
| \\      /  F ield         | OpenFOAM: The Open Source CFD Toolbox           |
|  \\    /   O peration     | Version:  v1706                                 |
|   \\  /    A nd           | Web:      www.OpenFOAM.com                      |
|    \\/     M anipulation  |                                                 |
\*---------------------------------------------------------------------------*/
FoamFile
{
    version     2.0;
    format      ascii;
    class       volScalarField;
    location    "0";
    object      C;
}
// * * * * * * * * * * * * * * * * * * * * * * * * * * * * * * * * * * * * * //

dimensions      [0 0 0 0 0 0 0];


internalField   nonuniform List<scalar> 
2500
(
-0.0916739
-0.00910151
0.0669634
-0.0328028
0.0130979
-0.0996466
-0.0624821
0.0980868
0.0500994
-0.0267453
-0.0297582
0.014669
-0.0734892
-0.0871667
0.0901707
-0.069288
0.0169299
-0.0566824
0.0613003
-0.0719054
0.0244118
-0.0578214
-0.0986844
0.0146597
0.0865328
-0.0319347
0.0782161
0.0187745
-0.0214207
0.0798647
0.0389988
-0.0542795
0.0924919
-0.0975892
-0.0778085
0.0768193
-0.0766488
0.0501845
-0.0406133
0.0293383
-0.014684
0.000188202
-0.0370846
-0.0126431
0.0320071
0.0405091
0.0549618
0.0626533
-0.036037
0.0964653
0.0359265
-0.069805
0.0752054
0.0393517
-0.0245268
0.012967
-0.00500156
-0.0455018
0.0878656
-0.0481879
0.00803679
0.0295559
0.0139551
0.00191306
-0.0593403
-0.0822848
-0.0438264
0.0409329
0.0519858
0.034124
0.0214199
-0.0248759
0.00244931
0.0104386
0.0317022
0.0875768
-0.0609332
0.0186464
-0.0836317
0.013945
-0.04652
0.0906194
-0.0541317
0.0603521
-0.0323728
0.0169883
0.0890501
0.0287488
0.0806471
-0.0263149
-0.0515992
-0.00210083
0.0827897
-0.0341635
0.0654468
-0.0373307
0.0868063
0.0186683
0.0973869
-0.0222286
-0.0607728
0.00890211
0.0922385
0.0300743
0.0134837
0.0961029
-0.0297553
0.0996726
0.0299465
0.0630227
0.0315531
-0.0841413
-0.0637498
-0.0582503
-0.0775906
0.0998554
0.0719786
0.026101
-0.0869115
0.069646
-0.0422606
0.0410282
-0.0300652
0.0996144
-0.071648
-0.0492367
0.0812358
0.0432439
0.0773956
-0.0138954
-0.0471214
-0.0168047
0.0154529
0.00781613
0.0961193
0.0402083
0.0523833
-0.0990932
-0.0517506
-0.000931134
-0.0041505
-0.0799749
1.20706e-05
0.0731267
-0.0193029
0.0389047
-0.055538
-0.0165943
-0.0111107
-0.040566
0.0443699
-0.0427597
0.0353582
0.0243183
-0.0363407
-0.0842819
-0.0551511
-0.0296108
0.0877697
0.00828297
-0.0423112
0.0294824
-0.076078
-0.0659811
0.023147
0.00562923
0.0213256
-0.0420791
-0.0219967
0.0594202
-0.0296948
0.0604802
-0.00889362
0.0442437
-0.0443053
0.0519365
-0.026339
0.0492461
-0.028199
-0.0815424
0.0169756
0.0980019
-0.0874259
-0.0456934
0.0972731
0.0708407
-0.0192576
0.0578771
-0.0305994
0.00649781
0.00363122
-0.0554156
0.0119601
-0.00769106
0.0818281
-0.0516323
0.055261
-0.0282497
-0.0489046
-0.0334996
0.0559076
0.0370533
0.0198603
0.0481521
-0.0712378
-0.0106532
-0.0932197
-0.0375435
-0.0749318
0.048866
0.088453
0.0115923
0.0869031
-0.00408933
0.0600953
0.0115962
0.0107108
0.0852625
-0.0136176
0.0594206
0.0299129
-0.0283808
0.0906424
0.0783888
-0.0423808
0.0333481
-0.0960865
0.00306751
-0.0900199
0.0116952
-0.0827154
0.0741773
-0.0809071
0.0708342
-0.0116467
-0.0118679
0.0175701
-0.0877619
0.0231113
0.0358929
-0.0234936
-0.0206151
-0.0437568
-0.0980774
0.0618575
-0.0965409
0.0945139
-0.0658483
0.0640329
-0.0417
-0.0309817
-0.0238721
-0.0097264
0.00732712
0.00262556
-0.0627977
0.0932398
0.0836088
-0.030375
0.00806446
0.0618968
0.096829
0.0766675
0.0777051
0.00761845
-0.0890322
0.0895025
0.0225733
0.0403906
0.0904934
-0.0287179
-0.00392243
0.0137066
-0.0696699
0.0784975
-0.0984715
-0.0955796
0.0285221
0.0137246
-0.0328473
0.0333182
0.0461692
-0.0153041
-0.0809531
-0.0130448
0.0458172
-0.068179
-0.0438499
-0.0995055
-0.0208851
-0.0831803
0.0378765
-0.0504101
0.0823899
-0.0901072
-0.0045285
-0.0128571
0.0631759
0.0587496
0.0460682
0.073998
-0.0469193
-0.0026155
-0.0744122
-0.0170693
-0.052703
-0.026099
-0.057076
0.00985185
-0.063785
0.00372082
-0.0987066
0.0778529
0.00081559
0.0365908
0.0193437
-0.0429761
-0.0652332
-0.0470401
0.0288616
-4.31554e-06
-0.030544
-0.041798
0.0200762
0.0796103
-0.0862058
-0.0569036
0.0701415
0.0463665
0.0318185
0.0378612
0.0240144
-0.049708
-0.0756406
0.0574091
-0.0736035
0.011266
0.0658903
-0.0394869
0.033556
0.00577904
-0.0131613
0.00903549
-0.00230956
-0.0354737
0.0509266
0.0896871
-0.0748161
-0.0424447
0.0254756
0.0649944
-0.0971136
-0.0389568
-0.0978801
0.0579167
-0.0191958
0.0468728
-0.0787779
0.0921699
0.0408312
-0.0266198
0.0637962
0.0446854
0.0930111
-0.0410834
-0.0186375
0.0953037
0.0750547
0.0308254
0.0714468
0.0499388
-0.0826669
-0.0817086
-0.0878927
-0.0241621
0.0323232
-0.0788677
0.0337249
-0.079387
-0.0693549
-0.0235446
-0.0757118
0.0304838
-0.0803576
0.0652774
-0.0173937
0.068298
-0.0526849
-0.0285458
-0.0975146
-0.070314
-0.0151866
-0.0890793
0.0932346
-0.0719345
-0.0567125
0.0912843
0.0243593
-0.0313133
-0.0275959
0.00685453
0.0845398
0.0516556
0.0431871
0.00444156
0.0296553
0.0676867
-0.0399954
0.0185782
0.0775423
-0.0973684
0.0366601
-0.0653115
-0.0927032
-0.087364
-0.00110612
-0.0757607
0.0103209
-0.0732247
0.00755307
0.0517976
0.0941765
-0.0255205
0.0287539
0.0905319
-0.0130514
-0.0920908
-0.0168385
-0.0739926
-0.039301
-0.0777818
-0.0121783
0.069744
0.0722645
-0.0125025
-0.0593356
-0.0488467
-0.00417273
-0.0460602
0.0978827
-0.0180011
0.0351761
0.0257894
0.0439922
-0.0200883
0.0983264
0.010007
-0.0322381
0.0508369
-0.00974773
0.0129348
0.0267603
-0.0656769
-0.0689025
-0.0961151
0.0294794
0.0456326
-0.00931062
0.000414976
-0.0144693
0.055735
0.00193621
-0.0913741
0.0979953
0.0509491
-0.0146957
-0.083705
-0.0974503
-0.0594654
-0.00325136
0.0708196
-0.0715247
-0.0692222
-0.0319741
0.0522196
-0.021759
-0.0284856
-0.0897995
0.0888549
-0.0657345
0.0847166
0.0204285
-0.0342624
-0.0788848
-0.000555647
0.0939722
-0.0113694
-0.0757232
0.00348986
0.0761718
0.0284535
-0.0836065
-0.0446035
0.0742374
0.0573886
0.0202309
-0.0771849
0.0207793
0.0686707
0.0745206
0.0815983
0.0776771
-0.0448651
0.0222334
-0.0525263
-0.0189886
-0.0933974
-0.0531202
0.0570656
0.049288
0.0131511
0.00539416
-0.0284571
-0.0448438
0.0608937
-0.0115968
0.0639921
-0.0545619
0.0503882
0.0507233
-0.0439001
0.0888831
-0.0828935
0.0454029
-0.00814924
0.0420687
-0.00892528
-0.0597101
0.042309
-0.0891253
-0.00800755
0.0518329
-0.0916122
-0.0893641
-0.0493405
-0.0203619
-0.024346
-0.0917277
0.00178248
-0.0716756
0.0401661
-0.0166681
0.0722477
0.0497116
-0.00381775
-0.0559604
0.0483931
-0.00428231
4.31577e-05
0.0543203
0.0419794
-0.0639521
-0.0900259
-0.00332696
-0.025639
0.0384499
0.0749429
0.0451649
0.0893382
-0.0652405
0.0986573
-0.0627479
0.00548132
0.0830383
0.0445098
-0.099672
-0.0128338
0.0928273
-0.0533654
-0.0503511
-0.000460394
-0.00696724
0.0397079
-0.0274412
-0.0937993
0.00449068
-0.0302052
-0.0532174
-0.049808
-0.0758071
-0.0298438
-0.0918139
-0.0497617
0.0560245
0.0148313
-0.0608746
0.0569605
-0.0677205
0.0499657
0.0487793
0.000569787
-0.0120476
0.0648904
-0.0287598
0.0654769
-0.0192679
-0.0659271
-0.0716681
-0.0678824
0.0267542
0.0351249
-0.0420559
-0.0934804
0.056636
-0.0594606
-0.0359305
-0.0712501
0.0273799
0.0708312
-0.0762301
-0.0819441
0.0707677
-0.0209863
-0.0858184
-0.0784695
0.0633957
0.0711974
-0.0222895
-0.0785884
0.0911373
-0.0684717
-0.0927839
-0.0987951
-0.0966603
0.0532928
0.0398084
-0.0591418
0.0393332
-0.0609674
0.0355779
0.0150132
0.0198772
-0.0562194
0.0769665
0.00531863
0.0651012
-0.0644633
0.0495116
-0.0520449
-0.00739938
0.0399366
0.00243132
0.0515593
0.00698094
0.0414695
-0.0118513
-0.0900725
-0.0141718
-0.0830902
0.0467188
0.0601478
0.0454475
0.0788309
0.0406421
0.00268798
0.00951283
-0.0252399
-0.0826793
-0.00137874
0.0598944
-0.0970573
-0.056893
0.0243923
-0.0956194
-0.0833385
0.0303547
-0.0792753
-0.0880756
0.0590816
-0.0139674
0.0844879
0.0316761
0.0287601
-0.0806136
0.0762407
0.0947979
0.0670039
0.0320244
-0.0519613
0.0933996
-0.00747076
0.00497622
-0.0771514
-0.0874781
0.0123457
0.0251814
0.00609251
-0.0393209
-0.0979383
0.0430711
0.0996127
-0.0180549
0.0811124
-0.0888907
-0.0225064
0.045927
-0.018404
-0.0388164
-0.0788845
-0.0126441
0.0119459
0.0805144
0.0875804
0.0186912
0.00267123
0.0383703
-0.0180853
0.0594675
-0.0394162
-0.000480016
-0.0595014
-0.0643841
-0.0143428
0.0883406
0.0229158
0.0993008
-0.0280963
-0.00370958
0.00439791
-0.0683134
0.0370098
0.0646001
-0.0955806
0.0223639
-0.0628296
0.0362452
-0.0374292
-0.0970594
-0.0785479
-0.0776492
-0.0449876
0.0596562
-0.022419
-0.0629106
-0.05137
-0.0999161
-0.00261831
0.0439411
-0.0788602
-0.0805882
0.0399294
0.0500827
0.0801106
0.0479606
0.0541597
0.0629789
0.0291054
-0.0128756
-0.0838115
-0.0345857
-0.0675777
-0.0924188
-0.0184644
-0.093207
0.0894151
0.0212836
-0.0939654
0.087247
0.0538646
-0.094578
0.0743142
-0.0822549
-0.0772097
-0.0116165
-0.0701849
-0.0320624
-0.0875398
-0.0310322
-0.0705256
0.0109684
0.0678427
-0.026854
0.0691879
0.091138
-0.0133528
0.0279754
-0.0717021
-0.0205735
-0.0576844
0.0985357
0.063636
-0.0500752
0.0644115
-0.032305
0.01267
0.0667587
-0.0270376
0.0950269
0.0232884
-0.0211983
-0.000769326
-0.046706
0.0625664
-0.00580437
0.0835448
-0.030288
-0.0680445
-0.0326352
-0.0137618
-0.0160143
0.0608382
-0.0500971
-0.0639009
-0.0567707
0.00901227
0.00861344
0.0683061
0.0808712
-0.00823629
0.0274269
0.057532
0.0461153
0.0747399
0.0163393
0.0592846
0.0642653
0.0614323
0.0344901
0.0517714
0.0960733
-0.0790367
-0.016284
-0.0195755
0.0342792
-0.049118
0.0842031
0.097114
0.0137821
-0.0727021
0.0491623
0.0460478
0.0326946
0.0170088
-0.0721722
0.0590702
-0.0227514
-0.016953
0.0857432
0.00582283
-0.0653287
0.0416232
-0.00844692
0.0109279
-0.036654
-0.0242358
-0.0631792
0.0535355
-0.00441437
0.0956241
-0.0606938
-0.0525849
-0.0199424
0.0897274
-0.0166392
-0.0539585
0.0613077
-0.0668808
0.0994512
0.00125821
-0.0459188
-0.0789582
0.0472479
0.0411198
0.0394824
0.0594162
0.0652908
-0.0719045
0.00583147
-0.0391799
-0.0898453
0.0592397
0.0248857
0.027165
0.00761052
0.0121217
-0.0824896
-0.0761385
-0.0410402
-0.0982093
0.0736873
0.00652962
-0.0779258
0.0629999
-0.0202008
-0.0925195
0.0563993
0.0171145
0.0294576
0.0481233
-0.0248996
0.0239947
0.0888563
0.0536116
0.0795878
-0.0042825
0.0180147
-0.0884619
-0.0910823
0.0919427
-0.0423082
0.0570411
0.0692359
0.0973306
0.0487156
0.0676554
-0.0801795
-0.0384099
0.00461837
-0.0864024
-0.0111633
0.0650233
-0.0134474
0.0995226
-0.0667854
0.0499932
0.086363
-0.0656445
-0.0942063
0.0653664
-0.00757458
0.0244348
-0.0351382
-0.0689105
-0.0454427
0.0653847
-0.0245997
-0.0913209
-0.0317858
0.03896
0.0798069
-0.0837873
-0.0682938
-0.0526947
-0.0662164
0.0496826
-0.0112092
0.0490001
-0.0612144
-0.0467623
0.0263663
-0.0751174
0.087366
0.0464237
-0.0451405
0.0885792
0.0564856
-0.0147927
-0.0628485
-0.0258746
0.0240957
-0.03588
-0.0414714
-0.0460963
0.0868532
0.0087047
-0.0686876
0.0528256
0.0656398
0.0506162
-0.0822297
0.0833409
0.0977061
-0.0970986
0.0260214
-0.0997954
0.029934
0.081433
-0.0935628
0.0993115
-0.0997644
0.0621227
0.0491278
0.0123078
-0.0200785
0.074926
0.0832569
0.094697
0.0585507
-0.0420611
0.0110282
0.00201742
0.0970162
0.0118635
0.00623863
0.0942109
0.0202361
-0.0187972
-0.0195665
0.0160259
0.0367635
-0.0412315
0.00818061
-0.049714
0.0809688
0.070118
-0.0758065
-0.074156
0.0993735
-0.00933631
0.00447579
0.0433827
0.0245556
-0.0826608
-0.0550248
0.0358893
0.0792427
-0.0636091
0.00617152
-0.0517791
0.064326
-0.0327343
0.0304717
0.0589329
-0.0547223
0.0284723
-0.0807539
-0.0997058
-0.0473663
-0.0358934
0.0139541
0.0976511
-0.0522222
0.029515
-0.0746767
0.0511251
0.0222934
0.0919591
-0.0616421
-0.059235
-0.0521689
-0.0715491
0.0595531
-0.0639323
0.0770945
-0.0399444
0.0147327
-0.0667823
-0.0783774
0.0524445
-0.0718536
0.095074
0.0581093
0.0294984
0.0707621
0.0120733
-0.0952532
0.0240875
0.0410565
-0.0153173
0.0783306
-0.0477842
-0.00380236
0.0132931
-0.089433
0.00854071
-0.0254391
-0.00140299
-0.0597573
0.0985391
0.0094308
0.0492749
-0.0181475
-0.0584284
-0.0759972
-0.0254325
0.029255
0.0867088
-0.00693951
0.0330137
-0.0836233
-0.0930255
-0.04129
0.00689658
-0.0895088
-0.00421072
0.0761974
0.081973
-0.0551509
-0.05935
0.0491172
-0.0932647
0.0472531
-0.05712
0.0773775
-0.0267703
-0.066497
0.0786607
-0.0996246
0.0564415
0.0065449
0.0361773
-0.0356581
0.0411823
-0.0661456
0.037866
-0.00276167
0.089623
-0.0796347
-0.0226448
-0.0644296
-0.0899095
-0.0914066
-0.0797192
0.0417767
-0.00491062
0.0310458
-0.0201024
0.0833423
0.0359378
0.0252642
-0.0339086
-0.0515236
0.0907871
0.0647319
-0.00557307
0.059228
-0.00441082
0.0283358
0.0452996
-0.0494656
0.0428957
-0.0508239
0.0877404
-0.0697018
0.005939
0.0754611
0.0742561
-0.0333228
-0.0843861
0.0203315
0.00917804
0.0879722
0.0817223
0.0551652
0.070884
-0.0204208
-0.0712354
-0.0531956
0.0961103
0.0513076
-0.0521101
-0.00909704
-0.0788192
-0.0150279
-0.026799
-0.0579556
-0.0802517
0.0926667
-0.0890774
0.0803663
-0.0803725
0.0847886
-0.0119016
0.0312235
0.0531424
0.00607933
-0.0368121
0.0191219
-0.0325787
-0.0818039
0.0395637
-0.00692861
0.0551504
0.0372523
0.0454188
-0.0858983
-0.0350107
0.0511311
-0.0433978
-0.093491
0.00731957
-0.000939171
0.0246194
-0.0948347
0.019028
-0.022046
0.0783264
-0.00226
-0.0849589
-0.0925118
-0.0418189
-0.0181013
-0.000647657
0.0281007
0.0453992
-0.0944694
-0.0100004
0.0903638
0.00971783
0.00800968
-0.0728707
-0.0838823
0.0290511
-0.0392705
0.0678549
0.0448822
-0.0418939
0.0471234
0.0536071
-0.0747784
-0.0673867
0.0106483
-0.0167437
-0.0502316
-0.00155885
-0.0785205
0.0972429
-0.0274654
-0.0766369
-0.0902549
0.023705
0.0740888
0.0720999
-0.071024
-0.0528317
0.0684053
-0.0434248
0.0451228
0.0144426
-0.0329131
0.0828236
-0.00579915
0.0122236
-0.0472716
-0.0609726
-0.0313264
-0.0515405
0.0620594
0.0567137
0.035537
0.0973292
-0.0320591
0.0458089
-0.0327261
-0.0311197
-0.017831
-0.0137408
-0.00687712
0.0227514
-0.0886262
0.0521327
0.0182507
-0.0646032
-0.00277733
-0.038011
-0.0186046
-0.0331393
0.0989001
-0.0290471
0.049415
-0.0379157
-0.0521708
0.0400731
0.0051366
-0.0907322
-0.0326729
-0.00245917
-0.0487277
0.000849637
-0.0730208
-0.0798315
0.00939194
-0.0212382
0.0447375
-0.0462245
-0.0264016
-0.0370739
0.0889778
-0.0849638
-0.0786764
-0.0307333
0.0259925
0.0977551
-0.0206198
0.0202403
-0.0582107
0.0819293
-0.0139943
-0.0229334
0.00486859
-0.0815631
-0.0738003
0.0091441
-0.0287629
-0.0445195
0.0983652
0.0338447
0.0348061
-0.0296335
0.0984537
0.0709166
0.0441373
0.0727938
-0.0100817
-0.037385
-0.0829942
-0.0798429
0.0233745
0.00660568
-0.0576771
0.0136701
0.0416436
0.0674184
0.0476193
-0.025768
0.0696388
0.0981927
-0.0093481
-0.00762446
-0.0367149
0.0826926
0.0950338
-0.0635553
0.0494175
-0.0462714
0.0594743
-0.0679145
0.00456596
0.0545138
0.0237621
-0.0954574
-0.0769546
0.071002
0.0456646
0.0291155
-0.0547546
-0.0965525
-0.066794
0.0560426
-0.0599444
0.0824668
0.0662115
0.0712761
0.0486431
-0.0724639
-0.0624325
0.0969363
0.0411446
0.0435677
0.0344875
0.0131654
0.0572018
0.0439878
0.077443
-0.0492523
0.0927072
0.057268
0.031704
-0.0690613
-0.0411463
-0.0605771
0.0241394
-0.0491868
-0.0711036
-0.0105016
-0.0653081
0.0800742
0.0594023
-0.0989312
-0.0854857
-0.0347398
0.035737
0.0234081
-0.083971
-0.0381241
0.0588257
-0.0649095
0.0371435
-0.0679921
0.0276404
-0.0752861
0.0936678
0.0679345
-0.0516462
0.0432739
0.0798843
0.0102187
0.0387391
-0.0538904
-0.0253968
-0.0835062
0.0203654
0.0255771
0.0444039
-0.035023
-0.020221
0.0856071
0.0107474
-0.0793562
-0.0854006
-0.0964032
-0.064995
0.093578
0.0958792
-0.06815
-0.0349322
-0.0645078
0.011866
0.0187902
-0.0629137
-0.0253442
0.00128661
-0.0211495
0.0721719
0.0199385
0.0303917
0.0493309
0.0148342
-0.0245147
-0.0356726
0.0732666
-0.030092
0.0184056
-0.0198727
0.0107644
0.0782483
-0.0118573
0.0690731
-0.0307494
0.0771843
0.0188559
0.086791
-0.0418282
0.0963637
0.0818107
-0.0101881
0.00906266
0.0980889
-0.0243498
-0.0898832
-0.00866492
-0.0334611
0.056366
0.0802362
-0.0779415
0.0435292
-0.000719704
0.0497221
0.0794395
-0.0110641
0.0614897
-0.0986739
0.040324
-0.0210106
0.0097341
-0.0427961
-0.0318639
0.0408286
-0.0941099
-0.00976898
0.0661427
0.0306399
0.0262306
0.0545192
0.009327
-0.00286841
0.0228322
0.00701952
0.0946488
0.0119132
-0.0767148
-0.00360108
-0.0371748
0.00155011
0.0810166
-0.0130099
0.0944286
-0.0312049
0.0215442
-0.0915084
0.0590798
0.0570098
-0.066045
0.0733042
0.0795
-0.0155384
0.00155545
-0.0168726
0.0834453
0.0745323
-0.0136621
0.00802397
-0.0319858
-0.0674736
-0.0703857
-0.0789606
-0.0549847
-0.00351903
-0.077505
0.0192075
0.0161842
-0.0769547
0.0670558
-0.0299284
-0.0731728
0.0931081
0.0898979
-0.0424658
-0.0596353
-0.0534434
-0.00216342
-0.0691467
-0.0207144
0.0205945
0.0597571
0.00800321
-0.00413541
0.0888206
0.0539786
0.0746096
0.0149399
-0.0757228
-0.00288259
0.0305696
-0.032005
0.0625524
0.0444222
0.0497267
-0.00970823
-0.0274777
0.0644558
-0.0318492
0.0490138
0.0823277
-0.0999356
-0.0586156
0.0190954
0.0147053
-0.0443602
0.00125764
-0.0759553
0.0949698
0.0362319
0.0925137
0.0516554
-0.0289806
0.0112038
0.0255759
0.069713
0.0701145
0.00356829
0.0945334
-0.0240869
0.0823416
0.00125295
-0.017859
0.0811525
0.0542761
-0.0507113
-0.0872365
-0.051347
0.0751424
-0.0210931
-0.0206777
-0.0137964
-0.00337332
-0.0570169
0.02411
-0.0510491
0.029434
0.00504493
0.0116523
-0.0199634
-0.0341717
-0.0653743
-0.0864389
-0.0389797
0.0770084
0.0242189
0.00260589
0.019097
0.0946447
0.00717475
-0.0987725
0.0399095
0.0027261
-0.068052
0.0767564
0.050186
0.0126892
0.0621231
0.0531087
-0.00896744
-0.0266264
-0.0847857
0.0013039
-0.08135
0.0575497
-0.0664135
0.0664589
-0.0966849
-0.0233861
0.0708283
0.0277933
-0.000928843
-0.00933663
-0.0350061
-0.085425
-0.0842333
-0.0831851
-0.0895659
-0.0880914
-0.0774888
0.0866989
-0.0978311
0.0860206
-0.0314123
0.0850465
0.0462777
0.0925509
0.0362776
-0.0861673
-0.0424285
0.0597478
0.0924522
0.0972944
-0.0815381
0.0709778
0.0253442
0.077193
0.0826901
0.0202746
0.023401
-0.0220499
0.0722628
-0.0533988
0.0489712
0.0588749
0.0490576
-0.0639826
-0.00418365
0.0548883
0.0231857
0.0381136
0.00173605
0.0553147
0.0830845
-0.000922269
0.0622394
-0.0720425
-0.0422116
-0.0530711
0.0950994
-0.0135565
-0.0741146
0.0562247
0.0163303
-0.0255382
0.00990194
-0.0955006
0.0737936
0.0309219
0.0964952
0.0485107
-0.0459401
0.0632234
0.0247314
-0.0141147
0.0307364
-0.0721064
0.0253549
0.0209044
0.0982624
-0.0369289
-0.0225816
-0.0309718
-0.0351624
0.078075
-0.00533392
-0.0364821
-0.0670362
-0.0478916
-0.0519983
0.0724979
-0.0620233
-0.0243678
0.0731965
0.0024538
-0.0535547
-0.0391263
-0.0286885
-0.0859484
-0.0694012
-0.0928191
0.0653406
0.0709888
-0.0342153
0.0155108
-0.0218148
-0.00183245
0.069785
-0.0346249
-0.0922812
-0.0392401
-0.0193384
-0.0136721
0.023495
0.0627823
0.00932238
0.0419342
-0.0586768
-0.0221874
-0.0995005
0.0926295
0.0568269
0.0937836
0.0782076
-0.0114073
0.0631974
-0.0901853
0.0665567
0.0664638
0.0332556
-0.0496199
-0.0178122
-0.0356636
-0.0811404
0.0484377
-0.0506312
-0.0640623
-0.0154917
-0.064711
-0.0576484
-0.0765759
0.0351608
0.00485043
-0.0980173
0.0530055
-0.0250874
0.090754
-0.0145504
0.041076
-0.0870086
0.00646582
-0.0892883
0.0611498
0.0518779
-0.0952737
0.0625388
0.0223423
0.00022884
0.0695269
-0.0123186
-0.0248727
-0.0327434
0.0711101
-0.0342944
0.0945491
-0.0524562
-0.0951858
-0.0167773
0.0279617
-0.00621188
-0.0362038
0.0370405
0.044851
0.0131616
0.0327004
-0.0387887
0.029624
-0.010075
-0.0437225
0.019699
-0.0681976
-0.0726013
-0.0410249
0.0767363
0.0773465
-0.0233025
0.0469586
0.0877979
0.0734939
-0.0462269
-0.00569319
-0.0769737
-0.0407227
0.0818692
0.034844
-0.0899397
-0.00532031
0.0907134
-0.0120951
-0.0266548
-0.0988131
-0.0205074
-0.0688904
-0.0484631
0.00145907
-0.0536325
0.0898898
0.0336107
0.0201992
-0.0929291
-0.010869
0.0983952
-0.0555463
-0.0112613
0.0570741
-0.0572206
-0.0299752
-0.0221128
0.0888638
-0.0973186
-0.0699417
0.0243536
-0.026695
-0.089422
-0.0110665
0.0226624
0.021041
0.0871255
0.0442236
0.0908931
-0.031791
0.0659516
0.0947101
-0.00744638
0.0824733
0.0244725
-0.0356369
0.0626932
-0.0128679
0.00463927
-0.0899032
0.034609
-0.084193
-0.0885119
0.0523599
-0.0372498
0.0902563
-0.0294256
-0.0522702
-0.0888561
-0.0945835
0.0946995
-0.0547209
0.0508409
-0.0596746
-0.0166525
-0.064659
0.0761074
0.075677
0.0730991
-0.00972148
0.0145945
0.0761028
-0.0672415
-0.0800021
0.0443561
-0.0713148
-0.0975513
-0.0936607
0.0288306
0.0626344
0.00152391
0.0544168
0.093859
0.00556298
0.0564896
-0.00217636
0.0682026
0.0595798
-0.0515061
-0.0611109
0.0262023
-0.0411963
0.0622768
0.0934979
0.0591649
-0.0446743
-0.0127275
-0.0308786
0.0773717
-0.0173133
0.0200181
-0.0604572
0.0395053
-0.0227148
0.0289243
-0.0767049
-0.0813657
-0.0353907
0.0422151
0.0362061
0.0571645
0.00773769
-0.0775103
0.0109103
0.0164489
0.0922537
-0.097433
0.0751337
0.0847878
-0.0902465
0.0233186
0.00148719
0.0306838
0.0798273
-0.0279904
0.00805074
-0.0475671
-0.000801441
-0.0532255
0.0529547
0.0220198
0.061186
0.0374295
-0.0426553
0.00808352
-0.0134953
-0.0763539
0.0675645
0.012273
-0.0615309
0.0480053
0.065237
-0.0959063
0.0558396
-0.036354
0.0174267
0.0954687
-0.028055
0.0147918
-0.0293895
-0.0225819
0.0495047
0.0546627
-0.0977295
0.0328517
0.0500881
0.00107892
-0.0988033
-0.057545
-0.0181654
0.0779737
0.028792
0.0816195
-0.0115234
-0.0157817
-0.0262966
0.0475595
-0.0804331
0.00341286
-0.0660421
-0.0949831
-0.0280785
-0.0559722
0.00560365
0.0597593
0.0345971
0.0435285
-0.0861073
-0.00946997
0.0763083
0.0385455
-0.0403175
0.036931
-0.0397724
-0.00794517
-0.0345159
0.0632725
0.0849509
-0.0351797
0.0660765
0.022674
0.0634662
-0.0504413
-0.000399691
-0.0767449
-0.0511689
-0.0294095
0.0964209
-0.0436571
0.0836247
0.0479147
0.042818
-0.0419161
0.0309131
0.0821142
0.00085121
0.0291782
-0.0185881
0.0252981
0.00882183
0.0867321
-0.0782034
-0.0559188
-0.0390065
0.0371993
-0.00708663
-0.0253243
0.0911394
0.0753838
-0.0827092
0.0294496
0.0607036
-0.0174966
-0.0107072
0.0913135
-0.0943621
0.0329467
0.00806004
0.0702133
0.0312052
0.0568365
-0.0942522
-0.0213911
-0.00578771
0.0416868
0.0473167
-0.0154774
0.0884041
0.00478356
0.0221955
0.0365952
-0.0096436
-0.0924655
0.0346021
-0.0687582
-0.052458
-0.0913517
0.0533613
0.053752
0.0428134
-0.0750324
-0.0179795
0.00994503
0.0739852
0.0630705
-0.0626124
-0.0496999
-0.00473859
-0.0570248
0.0138592
-0.0574886
-0.0911747
0.0146562
0.0997755
0.0799417
-0.0720027
0.0914598
-0.00864998
0.0218983
-0.00589665
0.0303716
0.0134168
-0.0129492
-0.0181605
0.0815352
0.0513944
0.0943341
0.0148513
0.0281786
0.0756711
0.0376064
-0.0950212
0.028531
0.00139962
-0.0469145
-0.026224
-0.0456341
-0.020115
0.0946981
0.0902638
0.0631145
-0.0780606
0.0651188
0.0192965
-0.0757427
0.0714491
-0.00677394
0.00341481
-0.00620818
-0.00522542
0.0263899
0.0587755
-0.0435459
0.0474306
-0.016546
0.0419188
-0.0368444
0.0958402
-0.0528406
0.00617053
0.0254958
-0.0159833
-0.0406363
0.00986579
0.000592447
0.0711246
-0.0943549
-0.0630383
0.0337998
0.0574496
-0.0347006
-0.054256
0.015769
0.0479363
0.0764882
-0.0469024
-0.039033
0.0618264
-0.0168232
-0.00178091
-0.0999338
0.0248768
-0.0600775
-0.00316778
0.0870175
-0.0789134
-0.0574249
0.00918181
0.00723198
-0.0690951
-0.0917997
-0.00529215
0.00584577
0.0427014
0.0673137
0.0338547
-0.030126
-0.0528002
-0.0322558
-0.038425
-0.0538363
-0.0329732
0.0746602
0.00450709
-0.0249819
-0.0548975
-0.0713446
0.0494195
0.0994229
-0.0710226
-0.0228991
-0.0726649
0.0698064
0.00922992
-0.00237414
-0.0130986
0.017688
0.067621
-0.0983543
-0.00867797
-0.00248798
-0.0130661
0.0459636
-0.077106
0.0891566
0.0944934
0.0379295
-0.0365998
0.0744006
0.0335906
-0.0686437
-0.0390577
0.0249991
0.062874
-0.0460911
0.0459966
-0.0904334
0.00778024
-0.0498394
0.0514441
-0.00158189
0.0679608
0.0767441
-0.0189514
-0.0572725
-0.088763
-0.0535796
-0.00551053
-0.0346964
0.0518281
-0.0735055
-0.00116368
0.029059
-0.0344827
-0.0155203
0.0986775
-0.0344132
-0.012756
-0.0884568
0.0304866
0.0355052
-0.0293435
0.00397133
-0.0601388
0.0553722
-0.0291268
-0.0527901
0.0297576
0.0296012
-0.0993444
-0.0808743
0.0686557
-0.0478474
-0.0309176
0.0427949
0.0827264
-0.0603046
0.0564558
-0.00124183
0.0266754
0.0888913
-0.0714861
-0.0826606
0.0232538
-0.0554386
-0.0808664
0.068958
0.0488512
-0.0325204
0.0887858
0.0506766
-0.0823858
-0.0892602
-0.0756329
-0.0825846
-0.0471897
0.0780546
0.0161255
-0.0461156
0.0334309
-0.0624465
-0.086206
0.0464881
-0.0538173
0.00789038
-0.0855658
0.0520429
-0.0339306
0.0925905
0.00970388
0.0215207
0.0188349
-0.0979484
-0.0357695
0.0122363
0.0598959
-0.075451
-0.0934236
0.0915987
0.02941
-0.0422766
-0.0098872
0.0210291
-0.0676826
-0.0743066
0.0762976
-0.0781734
-0.0558107
-0.0648895
0.0638258
0.0181867
-0.0147214
-0.0172305
-0.0565436
-0.0306096
-0.058829
-0.0499765
-0.0872852
0.0271957
0.0718954
0.00307877
-0.0970538
0.0600731
0.0533971
0.0767485
0.0222925
0.0881835
-0.0248326
-0.068485
-0.0758384
0.077561
0.0929396
-0.0654812
0.0968414
0.0951214
0.0512139
0.0847159
0.0144069
-0.035213
-0.029409
0.0568902
0.0734197
0.066737
0.0912414
-0.0799155
-0.00130205
0.0547267
0.00618855
0.050542
-0.0276682
0.0393497
-0.0355458
0.0302887
-0.0860371
0.097474
0.0106317
-0.061494
-0.0889266
0.0598832
-0.0816208
-0.092055
0.0127155
0.0310871
0.0130365
0.0525516
0.00895327
0.0785956
-0.0664157
0.0605478
-0.0754036
-0.0443892
-0.0948961
-0.00957006
0.066041
0.0936108
0.0565264
-0.0276947
-0.0662535
-0.0871551
-0.0203389
0.0859098
0.0127841
0.0831191
-0.0327269
0.0073948
-0.00420106
-0.0511579
-0.0485326
-0.0469888
-0.0044156
0.076158
-0.021898
0.0282513
0.0403452
-0.0582173
-0.0342401
-0.0394278
-0.0111816
-0.0408287
0.00448471
0.062857
0.0830499
0.0147895
-0.0763529
-0.0307427
0.00523077
0.0930841
0.00172647
-0.00340218
-0.0938368
0.0214056
-0.0166606
-0.0796525
-0.0856733
-0.0755803
-0.0814653
-0.0128934
-0.0430052
-0.0091211
-0.067658
-0.095877
-0.0276659
-0.085975
-0.0169489
-0.0953855
0.0609889
-0.0489458
0.0681141
-0.0446189
0.0175007
0.0782584
-0.0926114
-0.0143185
-0.0506451
0.00859195
0.0733348
0.0246038
0.0909376
0.040035
-0.0265288
0.0547813
0.0607843
-0.0406037
-0.073203
-0.044479
0.00591618
-0.0790899
-0.0540153
-0.0839352
-0.00740155
0.0265478
-0.0479167
0.0632875
-0.092531
0.0704252
-0.0524969
0.0467303
-0.0512511
-0.0212989
0.0735621
0.0522208
-0.0606565
-0.0747742
0.0263616
-0.0662222
-0.0395944
0.0688222
0.0228741
-0.061977
-0.0332008
0.0180015
-0.0503917
0.087529
-0.0605562
-0.0486964
0.0189605
-0.0533634
0.0914374
-0.0849117
-0.0386278
-0.0618567
-0.0340416
-0.0150909
-0.0691783
0.0503597
0.038196
0.0516099
0.061243
0.0754634
0.00800481
-0.0903343
-0.0754285
0.0715741
-0.00516235
0.0543263
-0.0222338
0.0278764
-0.0749138
-0.00226782
0.0949921
-0.0645843
-0.0592952
-0.00510423
0.0389172
-0.00752535
-0.083522
0.0214395
-0.0133301
0.084942
-0.0857884
-0.0999551
-0.0255798
0.0266571
-0.0587015
-0.0438886
0.0209336
0.0858308
0.0374856
-0.0398178
-0.0759571
-0.00959262
0.0593081
0.0409386
0.0621903
0.042368
0.0417697
0.0242783
-0.028501
-0.011157
-0.0802636
0.0580917
0.0808956
0.0224599
-0.0813604
-0.0536255
-0.0246469
0.00622536
-0.0399897
0.0584258
-0.0997294
0.0466338
-0.0402143
-0.0421274
-0.073672
0.045477
0.0670733
0.0615396
-0.0499837
-0.065537
0.0420562
0.0797963
-0.0753273
-0.00864964
-0.0989416
0.0886203
-0.0073453
)
;

boundaryField
{
    top
    {
        type            zeroGradient;
    }
    left
    {
        type            zeroGradient;
    }
    down
    {
        type            zeroGradient;
    }
    right
    {
        type            zeroGradient;
    }
    frontAndBack
    {
        type            empty;
    }
}


// ************************************************************************* //
